559
Step 0 Lattice="11.0 0.0 0.0 0.0 11.0 0.0 0.0 0.0 11.0" Properties=species:S:1:pos:R:3
H 2.625101 5.651994 3.825171
H 2.690154 3.660592 0.075241
H 8.268603 3.039006 4.448430
H 8.380769 10.720559 3.703476
H 2.669567 4.625481 3.365090
H 8.329845 2.687121 10.555846
H 8.127085 1.636037 6.393965
H 6.553318 2.701084 0.753861
H 2.638236 9.607895 8.740586
H 8.384774 3.831396 10.117984
H 6.622296 0.151733 9.461506
H 7.498412 3.049118 8.757363
H 8.385064 2.357283 3.614922
H 8.217816 5.042010 3.509842
H 6.573858 2.849819 6.157025
H 2.631887 3.768140 3.956764
H 6.136909 5.465945 1.726742
H 6.651069 4.512329 2.364889
H 7.398355 7.703243 2.521408
H 5.715956 6.483389 8.079990
H 3.550729 9.759261 4.260090
H 4.593883 4.973577 2.206667
H 7.600655 2.385358 1.916784
H 8.417537 4.899399 0.622197
H 6.875315 6.372622 4.897656
H 2.560636 7.333881 4.334707
H 4.573430 4.346314 10.028039
H 8.345957 6.950245 10.725355
H 7.225301 2.269228 3.890638
H 8.278759 10.065210 4.508639
H 8.390122 2.107310 7.228131
H 5.687647 4.569373 2.797904
H 2.769321 6.881979 2.708709
H 3.985529 6.942177 9.179567
H 8.389847 2.188655 2.536048
H 7.218742 5.540501 1.705905
H 8.385457 9.445567 6.922566
H 3.693100 5.497726 3.819143
H 4.457676 5.034311 5.011479
H 2.750128 4.704977 6.975707
H 5.701496 8.519418 7.644728
H 2.744807 1.406370 3.823228
H 7.915557 10.948673 9.734399
H 2.624311 2.648520 6.797108
H 4.517012 5.499405 6.049744
H 2.704325 1.453046 6.983917
H 3.886138 1.675772 3.542814
H 7.273392 3.243436 10.878943
H 2.570955 1.821343 5.804383
H 2.569091 7.445244 0.932774
H 7.483909 3.571454 7.814806
H 4.827525 4.000416 2.650674
H 3.457618 5.169153 6.080390
H 8.314616 8.045479 8.506930
H 7.177564 10.486354 0.269346
H 6.424959 3.753776 1.673212
H 5.901991 1.233367 1.081590
H 5.597357 5.076943 5.545289
H 8.391694 10.574017 1.473534
H 3.766491 7.722531 10.267437
H 7.289233 7.287479 8.015306
H 5.564578 4.512727 1.746976
H 5.124437 6.153870 5.520701
H 3.925681 8.690830 10.072203
H 5.771796 2.457370 7.816833
H 5.145639 2.568540 6.838373
H 6.315368 6.645153 9.828199
H 8.148054 9.397310 7.963940
H 4.405782 3.496814 6.697373
H 5.913175 3.759446 9.787508
H 6.879536 1.751370 10.886215
H 6.588642 1.305310 8.903332
H 7.838509 4.459826 5.397839
H 7.917976 9.354293 9.346888
H 7.454027 8.530171 6.706013
H 5.574086 4.490978 0.347724
H 5.256641 5.226287 0.984742
H 8.424513 7.025384 8.440497
H 5.271421 5.928639 9.823584
H 6.591077 8.007722 10.464674
H 2.786876 4.530981 2.321960
H 4.883285 1.310529 6.473777
H 4.166835 6.992816 3.133435
H 2.630211 0.245558 5.968051
H 6.605736 10.730261 10.429019
O 2.608709 2.015486 2.918364
O 3.372220 1.652867 2.329315
O 2.639491 9.709444 3.438984
O 2.729930 3.268450 9.990326
O 2.616014 3.121832 1.052239
O 2.655104 2.317041 1.832434
O 7.485079 7.271254 5.154552
O 8.349830 3.386337 2.395519
O 5.060971 6.036204 8.854266
O 7.345550 3.352397 0.975017
O 8.238213 9.159785 1.603315
O 3.950636 6.506838 10.947330
O 7.144647 2.252537 7.950218
O 3.665199 2.569848 2.655442
O 8.325821 10.533009 7.867511
O 8.361902 10.987905 2.496538
O 8.416164 2.907088 9.435319
O 2.587381 6.919561 6.401564
O 7.552433 2.842030 2.850983
O 8.437414 2.987577 1.138698
O 6.631163 2.225281 2.982231
O 7.547728 1.140230 1.162035
O 8.273606 7.263723 4.326317
O 8.322110 6.516748 5.195938
O 8.178716 2.502022 8.178138
O 8.427192 1.709442 8.925203
O 2.730906 5.351431 1.438798
O 2.822796 3.359610 2.096103
O 2.706929 2.703220 4.283830
O 5.585765 3.338453 2.116109
O 4.521668 0.319228 0.684542
O 4.938780 10.522476 10.928152
O 3.594962 3.507674 1.004509
O 8.373238 8.460209 0.693216
O 2.860435 1.291293 1.238264
O 8.449644 5.340693 4.797516
O 2.625838 1.730965 4.808430
O 8.328821 0.842992 8.153706
O 7.626077 2.289214 0.864783
O 6.546288 3.366683 2.939238
O 8.283498 7.025411 7.335662
O 5.710625 2.115126 2.157399
O 4.138242 4.287987 0.305591
O 7.428009 1.540820 3.074141
O 7.832793 6.015595 7.044813
O 8.383240 1.565735 10.144928
O 4.455117 8.926952 8.450652
O 3.484733 0.134081 4.203252
O 6.313411 10.087065 8.325210
O 8.400475 1.632957 1.503315
O 6.034740 9.976969 10.570626
O 2.657668 2.271317 9.051980
O 8.356006 3.608576 0.143293
O 6.932750 7.901432 5.923418
O 2.632929 3.649268 6.948069
O 2.600893 5.439691 9.788783
O 7.908515 0.195913 0.774795
O 2.707620 2.355595 7.955444
O 8.398286 3.457116 8.534188
O 7.425039 0.159209 7.986505
O 4.850717 5.289108 8.040870
O 3.554412 3.758444 2.848946
O 4.768680 6.734336 9.881461
O 2.684834 7.880677 9.863417
O 3.755691 5.710554 7.768531
O 2.623417 4.313032 9.902280
O 4.580639 4.220322 8.247645
O 3.263558 5.822412 10.491096
O 3.622246 3.012210 9.491439
O 3.505992 3.274520 3.858022
O 3.699050 1.834607 8.869318
O 3.999467 5.883061 9.432685
O 8.409001 9.835493 2.446429
O 2.867243 8.397153 10.735001
O 2.705683 6.349208 1.771826
O 2.627870 5.563002 2.681100
O 4.063230 9.693091 10.165433
O 4.726367 6.298887 7.546624
O 6.190006 10.259986 0.567028
O 8.241112 10.642688 10.743630
O 4.905369 6.694950 6.323774
O 2.797417 1.284475 9.546568
O 3.741451 3.935091 8.955718
O 3.414577 0.624377 3.179797
O 3.489948 7.634629 2.536771
O 7.701573 8.113661 1.503910
O 2.634700 5.455714 0.265205
O 3.866782 5.792521 1.561138
O 3.829703 4.618578 1.363134
O 8.389500 9.463675 3.546715
O 7.275756 10.146999 7.791631
O 5.290260 7.510609 7.276052
O 5.835226 6.775131 4.872610
O 6.159625 0.442088 5.614358
O 7.074810 9.424804 8.684517
O 5.174935 7.267513 4.146109
O 4.153391 7.224087 7.426400
O 6.443305 9.469778 1.659973
O 3.589419 1.036292 0.479276
O 8.224652 8.453624 3.754191
O 3.071192 4.590775 10.841959
O 8.190716 7.746482 6.386524
O 7.254888 8.865452 0.976699
O 3.426590 8.932242 9.070153
O 7.311883 7.079824 1.304207
O 5.083701 9.378306 10.358249
O 4.956149 8.074464 2.471813
O 7.549472 6.589155 2.575550
O 5.621997 7.720791 3.271573
O 2.771194 8.359787 8.279832
O 7.585706 10.226777 2.991267
O 6.502657 6.758807 1.991021
O 5.463215 6.003902 2.298859
O 7.203945 10.131046 1.338388
O 6.423403 0.188844 8.355960
O 4.771560 2.153178 9.385553
O 5.198247 6.508732 3.246690
O 4.222694 2.143163 10.368498
O 7.545070 4.340884 0.044948
O 4.356552 7.896505 1.578221
O 5.460782 7.090966 2.390687
O 5.559996 8.798843 3.495435
O 4.335865 9.768766 6.944110
O 4.562368 3.327156 10.129866
O 4.418017 0.534159 10.450707
O 3.591621 1.259432 10.442617
O 6.884702 5.173566 0.383472
O 2.631806 0.983152 10.865959
O 4.154272 1.073116 9.506460
O 3.453210 10.167588 9.245153
O 4.449295 10.909239 9.532047
O 4.517550 5.402249 10.478191
O 3.406339 0.640358 8.934418
O 3.681648 4.988625 2.848812
O 3.651076 0.646023 1.422952
O 5.309503 6.837400 1.196690
O 2.613879 10.335147 4.585172
O 2.708673 1.328420 8.528266
O 6.304864 8.049296 4.058084
O 7.389379 10.547959 4.127430
O 7.474664 8.319148 4.581704
O 8.307989 5.249337 9.775120
O 7.230404 5.394868 7.636162
O 7.286141 10.626953 8.821626
O 5.481385 5.884461 4.344280
O 6.171590 8.103672 5.164154
O 4.444044 6.218638 4.544562
O 7.224809 6.620696 3.674571
O 8.306680 4.200073 1.492303
O 7.431012 7.739440 3.653976
O 8.271537 1.551076 0.499120
O 8.313630 6.095763 8.043004
O 6.984246 8.829099 3.642259
O 3.795507 5.454943 0.324229
O 6.753258 4.454150 3.428140
O 7.387891 2.312144 6.799070
O 8.341866 8.863558 10.677333
O 7.387774 0.418088 3.446421
O 2.761489 9.431497 9.929716
O 2.769553 10.539064 10.808952
O 8.327536 5.127402 7.558718
O 5.794634 6.562036 6.942447
O 7.425525 3.582272 2.066752
O 2.788472 4.684279 8.987965
O 5.497261 0.534584 7.740520
O 8.357987 4.158852 4.102612
O 7.410985 5.306970 2.846889
O 7.127515 9.274887 4.578218
O 6.268140 9.972858 9.454828
O 4.996111 8.965491 9.405933
O 6.664126 6.896980 6.452885
O 2.546167 8.998124 1.096804
O 8.326026 7.209192 3.073265
O 5.208000 2.086782 3.360424
O 6.324031 0.082933 7.263422
O 6.384262 5.719833 3.637491
O 2.659234 9.543761 7.452072
O 5.579753 0.351452 0.553521
O 7.546442 7.583445 0.341543
O 5.758330 7.322062 5.770601
O 6.954674 8.613600 2.038473
O 4.547376 1.060913 8.357708
O 8.311939 0.683692 10.800007
O 4.889227 7.195550 5.296989
O 6.736756 10.391206 2.252963
O 2.863804 4.146261 1.432096
O 2.628947 8.871901 2.764666
O 6.457176 5.958504 2.639938
O 7.435080 9.529470 2.200893
O 8.335500 0.399179 6.838865
O 4.916830 0.993377 1.496078
O 6.261613 1.050229 6.677581
O 4.696830 5.064562 9.139889
O 8.105670 7.923311 10.306651
O 2.881420 10.820553 8.679824
O 4.298858 9.939948 0.873037
O 3.456876 6.451030 8.456075
O 5.304615 10.308486 9.812747
O 2.637932 2.051364 0.006987
O 3.189025 2.319169 0.812387
O 6.510559 10.167562 4.625253
O 6.856920 8.886298 5.603035
O 8.382127 5.356276 6.065288
O 2.717540 10.668734 6.973273
O 2.646628 6.063777 4.839772
O 3.706703 10.871116 0.118885
O 6.363457 9.032069 6.505302
O 8.435893 2.990476 6.587250
O 2.855812 5.591223 8.572330
O 7.296949 7.257368 10.315776
O 7.768551 4.553687 6.489492
O 8.363126 7.310500 9.485302
O 3.644364 3.081180 0.015894
O 5.520242 9.042784 2.115575
O 7.476417 3.551270 6.389820
O 3.870525 8.789439 2.458691
O 7.398177 5.512352 3.994799
O 3.545372 0.093492 10.073028
O 6.520140 5.317530 4.840301
O 8.388085 7.794012 5.366592
O 4.390426 6.578536 1.999813
O 5.497222 9.592665 5.235907
O 6.685795 1.082735 7.659944
O 6.580106 3.026414 7.273388
O 6.414085 1.974019 6.967854
O 4.847140 2.590988 2.371117
O 5.305612 9.958161 8.599601
O 6.216714 4.112839 5.315985
O 6.926427 2.479593 5.142363
O 6.270005 1.172086 3.017214
O 8.310667 8.185664 7.316035
O 5.079641 4.092215 4.818409
O 5.310805 10.528171 7.544218
O 7.359984 3.538762 5.151705
O 4.306684 9.590405 5.293015
O 3.677694 4.852364 9.921148
O 3.687822 8.985620 1.043149
O 3.621252 9.552907 6.103370
O 7.491525 0.885675 10.074779
O 3.704715 4.923553 8.527184
O 4.295133 2.267283 0.453938
O 3.375828 10.414530 2.818973
O 2.548961 10.922646 3.234501
O 7.254395 4.382607 1.151849
O 3.410494 9.031722 5.022344
O 6.318733 1.029811 10.038437
O 3.917988 2.352969 1.558572
O 8.238054 3.514912 5.645599
O 8.107798 6.167634 0.894156
O 8.237590 5.741354 10.796924
O 3.607112 4.302777 4.379053
O 6.941304 10.139717 5.915765
O 6.587929 9.345670 2.691040
O 2.728964 0.617039 5.103935
O 5.375092 3.154850 3.178631
O 8.328482 1.518100 4.913352
O 5.043007 4.540268 6.382812
O 8.357687 6.747601 1.933610
O 3.599677 5.592819 4.876057
O 5.743499 0.296235 1.756687
O 5.107598 10.467323 1.100905
O 4.624006 7.913561 9.418046
O 7.090344 4.432746 4.486936
O 6.298521 2.257102 10.106630
O 5.535287 9.458278 1.007948
O 5.698916 7.454199 10.348760
O 8.346949 10.905688 8.788399
O 2.598698 3.090445 3.129945
O 6.133056 9.098851 4.321935
O 6.554772 10.149790 6.984967
O 4.834930 8.060267 10.484559
O 4.767255 3.088878 0.141290
O 6.707731 4.068816 8.656448
O 8.424209 6.176484 9.143393
O 3.382228 3.399508 5.939965
O 5.301526 0.911827 3.585854
O 8.345209 7.346311 1.060524
O 6.477495 7.633145 1.414894
O 5.389528 8.656768 5.960825
O 6.757917 6.563160 7.461612
O 5.352051 2.581992 10.326049
O 6.242446 5.316103 7.894552
O 2.837270 6.420857 0.586135
O 4.596209 2.142189 8.382343
O 6.614331 8.063594 3.031908
O 5.503814 9.544280 6.972037
O 5.253488 8.251470 8.608373
O 6.491556 6.971778 2.982134
O 2.512162 10.740826 9.757737
O 8.335793 9.026576 4.607281
O 4.264744 6.455094 0.922437
O 3.244135 2.206812 10.099812
O 6.819151 9.462843 10.977317
O 4.782898 9.671442 2.735148
O 3.518066 9.713438 7.940544
O 2.577953 7.854059 3.331114
O 3.414859 8.780351 7.261901
O 5.805490 8.648480 10.998415
O 4.399345 5.044056 7.066521
O 6.917518 4.280158 9.742015
O 5.378761 2.833617 4.788025
O 5.375002 1.487514 4.666449
O 2.644972 10.218856 5.805636
O 2.575163 7.994225 7.280445
O 2.784819 8.513269 6.088021
O 4.856226 7.024244 8.436234
O 5.462280 1.483027 7.431141
O 7.677103 8.721434 2.734702
O 2.714530 7.943376 1.834266
O 6.869631 8.260530 8.360979
O 7.261675 7.340711 9.077681
O 4.108438 7.870634 8.305266
O 7.299699 8.419467 9.365905
O 4.103162 3.497573 4.865445
O 4.457223 5.831786 2.961950
O 7.235070 5.160120 10.404711
O 6.099596 3.150135 10.883733
O 7.317063 6.139939 9.682823
O 3.465937 7.148020 1.396984
O 4.664743 8.678007 7.349219
O 6.725598 0.236748 1.028347
O 8.459032 6.746946 6.324637
O 8.326871 9.748180 0.758809
O 2.689360 5.875770 6.616019
O 8.133040 6.042778 3.271677
O 7.078624 6.328828 8.561243
O 2.615594 4.028557 8.038899
O 4.257415 10.979170 8.241020
O 7.356818 10.129981 10.265194
O 4.515546 10.000467 7.988941
O 6.125085 8.987713 8.832986
O 8.339798 5.736578 1.952678
O 5.317353 8.203353 1.423086
O 8.282694 0.754119 5.694146
O 3.695309 9.518516 3.241139
O 4.938579 1.565496 10.963879
O 3.642787 1.939210 7.855502
O 8.217761 9.883384 5.625938
O 7.782924 2.228561 5.649211
O 2.689908 8.717124 4.001542
O 2.767775 7.588897 5.455218
O 6.556630 2.760547 1.803533
O 7.172723 0.923647 6.222510
O 5.125619 0.168672 8.751641
O 7.052646 3.334585 4.100517
O 2.911126 3.322566 8.684414
O 7.614380 0.779730 8.903263
O 6.827353 6.086991 0.872348
O 5.229300 0.085137 4.448794
O 6.081876 8.136138 2.215329
O 8.169913 6.278764 4.283438
O 7.661881 6.297640 6.018563
O 6.794023 5.322728 8.751644
O 2.523593 0.139784 2.132382
O 6.829568 7.806817 7.111890
O 2.640139 4.934517 5.550014
O 5.458282 7.219284 9.361002
O 4.009863 0.948391 7.210316
O 7.140275 0.785601 5.096922
O 6.737096 0.816031 2.036896
O 7.610651 1.383788 4.206158
O 2.780617 0.577271 7.528286
O 5.720638 4.587643 3.902864
O 6.104899 2.808030 4.021749
O 4.782541 5.212913 3.925117
O 2.524585 0.952685 2.789913
O 6.647754 4.039762 0.257100
O 4.264795 8.584917 5.824076
O 3.947493 4.287266 5.617718
O 6.504824 9.039832 10.003640
O 5.537238 0.318153 10.394001
O 5.164558 1.160160 9.955440
O 5.712017 8.224690 9.747514
O 8.387613 10.547388 6.361060
O 4.944333 1.450008 2.619584
O 3.488135 7.845923 0.525785
O 5.449154 10.031080 4.062219
O 2.649817 0.242140 0.921655
O 8.343581 0.913277 3.486276
O 4.384443 2.770311 3.613100
O 4.293825 9.716730 9.065696
O 6.854169 3.077403 9.814465
O 4.867568 3.977436 1.040852
O 6.032649 7.975516 6.561922
O 3.603660 3.951808 10.256239
O 8.399494 4.012074 7.343439
O 5.174250 8.685377 4.935732
O 5.540479 1.108012 8.585797
O 4.167136 7.335524 4.029588
O 4.462501 0.839100 4.128658
O 6.055638 6.035669 8.981262
O 4.380741 2.394740 4.647395
O 7.312943 0.071773 6.863896
O 6.300121 1.044306 4.238322
O 4.153769 3.644512 1.906762
O 3.943177 6.070777 6.715713
O 6.243812 4.752807 10.549654
O 3.467333 8.131608 3.891697
O 7.629340 10.903753 5.321449
O 6.521545 10.282392 3.286654
O 4.817426 7.720904 6.197818
O 3.561609 7.262448 6.063490
O 4.424044 4.111792 3.684625
O 5.724934 2.108381 5.578235
O 3.936555 6.375699 5.662383
O 6.101749 6.001542 5.493378
O 8.426717 0.803582 9.462001
O 3.792729 4.190770 7.351056
O 6.010949 0.128610 3.598734
O 3.042727 10.221918 0.843802
O 4.640534 9.418237 4.065543
O 4.603292 7.338679 0.390304
O 6.047135 5.160445 9.438173
O 7.317937 6.393222 0.037879
O 6.061821 6.012919 10.535169
O 5.661726 3.182240 1.049984
O 5.689971 10.477467 6.147265
O 2.822978 7.147091 10.756562
O 7.902231 0.830818 2.328963
O 2.652052 4.613747 4.540914
O 4.267713 8.478897 4.538146
O 2.950427 6.673964 7.537695
O 3.295737 7.750027 9.070705
O 8.418332 9.980179 10.008167
O 8.408917 0.078994 4.694384
O 4.534152 8.530523 0.576330
O 5.735029 10.039387 2.048432
O 4.937276 5.937952 0.268377
O 2.730803 9.830637 2.231293
O 7.153119 1.890875 9.696438
O 6.420107 0.470979 0.077349
O 5.836954 7.543423 0.668147
O 8.103829 8.774984 5.928570
O 2.667707 9.541213 0.217721
O 7.134630 9.179625 7.502200
O 3.768758 10.575918 1.553237
O 4.449142 0.097717 2.137613
O 6.792670 1.914533 1.427705
O 8.470020 4.611925 2.530512
O 3.705090 9.205662 10.977976
O 6.670514 4.618951 6.937084
O 5.797491 4.284701 7.536267
O 6.549263 5.599081 6.473141
O 5.029080 3.294833 7.614338
O 5.777803 2.240717 0.270411
O 6.381802 6.851437 0.000861
O 5.292662 4.024196 9.089778
O 7.555669 5.473986 5.332323
O 4.525066 3.157585 8.593962
O 6.733988 8.105875 0.497063
O 6.836041 4.945904 5.777387
O 3.552116 10.568347 5.286104
O 6.772192 1.820521 6.077797
O 2.944774 3.541527 4.897977
O 3.681590 6.878022 4.796576
O 5.908993 2.458745 8.863135
O 3.275452 6.329736 3.988322
O 5.369569 10.508702 3.008220
O 6.312656 7.565427 8.744601
O 3.893824 10.775468 7.134413
O 5.170140 2.314561 1.217253
O 2.816050 6.863164 9.662691
O 7.610135 4.064384 3.412218
O 3.789157 3.462708 7.958950
O 4.393462 8.121681 3.242702
O 8.315457 4.454475 8.457947
O 5.535606 5.494332 6.725823
O 3.420123 1.211942 4.724427
O 3.849672 7.924078 5.145433
O 4.570814 10.651673 3.550526
O 4.286622 0.571184 5.867947
O 4.089040 2.417816 6.919607
O 3.571835 1.913869 6.188875
O 6.223244 3.740810 6.584870
