239
Step 0 Lattice="8.0 0.0 0.0 0.0 8.0 0.0 0.0 0.0 8.0" Properties=species:S:1:pos:R:3
O 5.018385443956701 0.44851128096399406 1.879402145713934
H 6.459672848462185 0.763995617556876 2.006142346637471
O 6.237709697517894 2.201206365665559 0.40857191607355603
O 3.6600775455162955 3.1915008086507077 0.9989387374101839
H 1.7381981256575205 2.014596483750907 2.7833924293847927
O 4.392994127668061 5.747098458447083 6.745799022715101
O 6.692472319151085 6.9500919226532485 6.641960958677645
H 5.902257399560176 0.6636544280200097 0.6314068565723913
O 6.634116706188289 5.211936442131325 5.437442224611017
H 5.6194389147072235 4.841454544675953 6.142753400013451
H 0.23925619970990042 3.6873538338071996 6.2565324614643325
O 0.9718853766193125 0.9072222879926864 2.0137215353636133
O 5.705537064662752 0.3970567841406626 6.0652298361057975
H 6.6242484878735635 2.9970920163185872 1.2498666271964156
O 2.7143682174655788 4.200240973551321 4.59605669761815
H 0.6005389299496909 0.9912350507601021 4.960011824128004
H 1.0206690913288619 5.697449303865598 4.32542686161626
H 4.169378559140258 1.088553879618853 1.197003124076195
O 3.2108455979262267 0.3376748259854091 4.672924006607921
O 1.5039432618692108 1.5658543260966056 4.873195010260731
O 5.228460889902497 2.690639073907 5.675267442961035
H 6.710889102335984 6.854227092328602 5.528469219324828
H 1.2539103513902397 1.0704252911613237 2.906352060666773
H 0.21855626319453458 0.870935880220607 6.546651646095038
H 2.3391536432739044 2.1306273414855896 5.58294077797588
O 4.827230394152406 1.2901477501287535 3.6442545741574617
H 4.26394113354432 2.8829828588925515 3.9218461914346054
O 5.199777570742672 6.902862717604576 3.968821737124024
H 3.8382773883293573 4.884022714495176 4.6755843875687
O 4.763417261988504 3.942492023982862 0.5562450648385165
O 0.5955057588889017 6.828869744656242 6.14348901309129
O 2.616185828482849 0.510822499864075 3.585010454836368
H 0.1264004610679711 6.25172318288039 4.708870748531152
O 1.6245369569978199 2.8498209648048967 1.5464993181779736
H 3.3199541717511276 5.062761967417897 1.7358629516328592
H 3.9340457440304495 5.13614600244995 2.6344844109755234
H 5.941414649225012 6.133628420654695 4.158665784444928
O 1.072352573618245 0.17463732061860515 5.154551519361606
O 0.05016043275171422 1.0249667124116577 3.9075063367105334
H 3.8751022403227724 4.9281812611608204 0.7367815644819042
H 5.045561135846964 4.985371027842443 0.029587462335013637
H 3.173975412746412 1.8422947427568992 2.796529829427624
H 6.488676238165154 0.45649026697470585 4.687022116069609
H 6.46030943970642 0.8905971740923625 5.622572864335239
H 0.7126502745191364 6.825560674062082 3.7664221644809466
O 3.3808003998454526 5.970758690197544 0.0682429384136567
H 0.03855468781559923 6.161396861438291 1.451166151096925
O 3.2038640175195403 1.5693395265473038 5.886623788033913
O 4.171973022057542 4.324068136560351 6.846874245524127
H 5.477778900511405 1.278065865418927 5.527639409307182
O 5.7771119411425635 6.621234542159751 5.000538771158861
O 4.57018485747256 4.539146101451698 5.961673883628762
O 5.931949022431613 0.7358554170349093 3.7854256702079363
O 1.6267228271603946 4.316762508663502 4.984930641058308
H 0.47748955485935174 3.3655281382063307 2.31088071229296
H 1.9903692731515652 1.0039909269828322 2.2589725532253127
O 2.7096611867638725 3.5199188968953443 5.410000038032556
H 3.4739309497209474 5.3559059802404745 6.091893307636103
H 5.176124945969155 6.508377814499257 2.4960017495408486
O 2.6783542583830466 4.861824544777565 5.671749598283251
O 6.285189995487452 3.0035383821587116 4.638118672901465
H 1.605847121391702 3.368987143873013 4.221695669421872
O 3.5866877108401063 2.0165325513597403 3.715916605437039
H 3.531221506686115 2.506782121765456 4.665903325782931
O 1.2739245477174963 0.7410728584102653 3.91899002208161
O 3.744110445754049 0.33812276694410925 0.0893411545849998
O 3.3318587654144207 0.38944166054944884 1.1546068359896509
H 1.085959942533448 2.625413717835884 3.4422875374828448
O 4.56575049296448 1.957291399318807 1.6080081415933423
H 1.0853442352791176 3.138592201354292 5.7000149473128765
O 3.851779750302056 2.1028131771318197 0.793705784454492
O 6.058250590911162 1.2560316848711044 2.7969118722686597
O 5.373415325616796 2.5815160776771284 4.447201447680149
O 5.977714816423449 3.4043254907601432 6.033198819044495
O 0.8986023208143579 2.4038762257179 2.2675124889301594
H 6.753087913115983 1.8983020029662545 4.711088531956138
O 2.9368409564898488 3.334054827424409 4.161932934486217
H 1.881036764883339 5.585667968021932 4.9858645858908845
H 2.2205811308373975 0.7164629727337946 4.716367661757204
O 2.286354330681031 1.339419974217175 6.984779141962609
H 0.16110459561409218 2.051805075817118 1.3700128076869362
O 4.857605694629485 4.642994866085417 4.885956534678364
H 1.247499362169198 5.677575825703194 6.23641873613722
H 1.9191649826814812 1.2558568430851778 1.183628715393632
H 2.742447620866699 2.1682798770067873 0.9300108779674706
O 0.35253486858424776 4.40159649182112 2.1464991370198074
O 3.900378253978086 0.3155503910951467 2.082254029997972
H 1.5858632691691712 2.277020388549671 0.21748104359742826
O 0.28749188748792165 3.6298459501099165 3.825406068477635
H 5.339869164750429 0.4117371407297574 2.9045238539572416
H 4.891360671746996 1.6457131030950265 2.7176121578819856
H 6.643792154920805 2.2213436048510085 2.479517366225899
O 5.595936750230426 3.3088966549338688 0.8697666484039733
H 5.519942993333163 2.3383554863304967 1.2101340953399937
O 2.4283961660255042 1.903514062548136 1.9485491711937377
O 3.6980919110525394 6.62092195663468 6.166151299947108
H 1.6449332843105973 0.09059645377935566 3.154504491828534
H 5.024460475948828 5.895225652735845 3.4447624444483753
O 4.62369847434005 0.919693694739512 6.95716095179266
H 4.083696741075309 0.5204514194481331 5.550423713356724
H 6.915081148424671 2.5971991047736798 3.7935251244960795
H 0.4469983009968512 5.131235942516598 1.3215495371656227
O 3.439839678642703 3.313328226468124 2.890977350552014
H 6.430563005346477 2.6301711431787353 6.479163592539987
O 3.20226936444153 2.828449592123031 2.0037309384445794
O 6.244353395266194 6.658747198636162 2.0826466508941817
O 2.3851078044751177 3.976679898257869 1.680414237671211
O 3.8939911029536987 5.905895382883789 1.3875699840112234
H 4.69827836703184 3.118930421986028 1.5347570527688248
O 1.4151598670102272 5.6864959423411925 3.315420671138264
H 3.1983002621060526 1.1539345337437135 1.8640722174235762
H 1.002388198161793 1.5675856817252058 0.94620082503291
O 5.409191856239225 6.604297754165508 1.2800111915385255
O 5.684430724829645 1.7012681823972975 6.503975176331683
O 0.6992555669389371 3.01256618311563 1.0971030580444583
H 5.484940677692802 2.9667792863658797 6.904951972459896
O 2.5527090321348966 3.2029386650732836 0.9400566195767842
O 1.33152413837591 2.1686006613784365 6.24685894792053
H 2.9851901620566688 4.095439377678769 0.7846636302487148
H 6.708078020421137 3.9107996408141967 2.7159623479782073
O 5.222475601336577 3.5970857900339475 2.3810949717932393
O 6.843175923738873 5.737991507991482 6.686959353418404
H 2.422373405941941 1.4581395434974818 3.9500249935479097
H 5.720360554850109 5.80310117319199 0.3773909889986169
O 4.473530806123546 5.47133111612475 5.623889584887213
H 6.306264848894453 6.62547128442409 0.8624495235708473
H 0.10416852570319468 3.889646880437443 1.1360814396854437
O 3.288972690928011 1.3563524195379502 0.20737941648078717
H 2.9216416410395727 0.22649446887519142 5.9259367048480796
H 6.656784621203555 3.4906096249059786 0.3599435345148715
H 4.160272974374274 3.9740694536899337 1.634595649323114
H 0.622714925214227 3.004917952783034 0.04107674750949897
O 4.901903044680853 6.671738667986411 6.901549919773391
H 1.726182342890609 6.661835191680821 4.341070432547414
H 4.663586508058851 5.736217767453988 2.1134415255857815
O 5.4939901837290765 5.878764208466016 6.369602075488521
H 3.0682343912511634 4.241978995173717 2.5792978203462944
O 5.8802411749590195 4.646497888301584 3.090621194125032
O 3.73704784277244 3.620716337020604 4.790397433167765
H 0.7358102843778149 4.677679657666568 5.485069235138501
O 3.6645763942231424 3.8868833420324918 5.900124852171389
O 4.440007392420679 3.0586813591938387 6.672604216726398
H 2.301449579507633 1.031036357089595 5.681591457988318
O 0.8781849097515759 1.7138057502936015 3.723023882298653
H 6.652903218913896 5.368946721139858 0.6439894247187006
H 0.1489381803754366 0.9295422317136957 2.9453028184321557
O 5.066609617336023 2.427040405618256 3.3315195730817813
O 0.3445923191481467 1.8087846941223145 5.847068181941916
H 5.029379934684615 0.7720360080811799 4.6563761350997295
H 5.1151556111291825 4.716390697633873 2.2848692821132377
O 1.1802962564290918 1.2408907441646193 6.944633551563591
O 4.659249381501352 6.548872392949028 5.641107845239859
O 4.397898798880708 2.850743571643916 5.008907254037317
O 3.8443863682725055 6.134284754317746 2.4386572901859793
H 6.679879492224681 4.587485594583623 6.56453552190999
H 6.061702736387185 6.680190000256351 3.180324774004617
H 3.816542199558227 0.9794168667286868 3.9470557991358324
O 5.857102279985764 4.191081774322578 0.22031200515144
H 6.692027122652 5.32968492270065 4.215846016181496
H 5.521940117778581 1.282575620455123 1.8417555621015524
H 6.716735402927875 6.805034029363438 3.9971159949780892
O 5.622974481102629 5.032174081082298 4.045560912777525
H 2.599916586530327 0.3894757690050695 0.10645713676504309
O 4.008529483334967 6.825445334925019 3.962056541091973
H 5.276044865092742 4.503809062200229 1.3353866060236386
H 0.5866453101843044 4.86585846808728 0.3114272266335939
O 3.30943192888979 2.852731088930345 5.924359095624088
O 3.0040159067929464 5.470022270730056 4.845046180642848
H 4.798320320220481 6.073383166067508 4.6467817846978265
O 2.2953699592713175 3.19422292486498 2.5563465543182495
O 2.7794457216885964 0.004111772618288545 2.359224738999151
H 1.9665591826255446 4.296357046793188 2.6093330613256356
O 1.4968424100808084 4.4485502648503745 3.5970203860795453
O 3.7162002983125575 4.379615074284057 3.6519707923586333
O 1.56390798045505 0.00850299214513317 6.794742241492533
O 5.777556637524179 5.5278509853368565 1.4912271664341337
H 6.1724434167063205 3.938002703615691 1.6362372636456484
O 5.386277479949626 2.595488406157873 2.243578403273161
H 1.2297375899113887 3.7197356667397736 2.9879529387574717
O 2.7343088844466372 5.098629363757431 3.0041466894691156
H 4.130781833274601 4.0563646803501445 2.6813960233110743
H 2.444739392193531 4.243175376421362 6.5281881202304
H 4.421690416272223 6.748739283656386 0.9209417818308401
H 4.375811421484444 2.894289839739727 2.763772589385522
H 2.316439434462124 5.398392281063434 6.6589771391470105
O 0.7135457267359826 2.380086906788989 4.923100546570142
O 0.4158236578252965 0.14261315228435856 2.3485013950706763
O 0.7573951258856628 6.127589737720282 2.5512064606923133
H 1.4597622954086908 4.671411603212029 6.789794747321521
H 1.565513304842736 6.989840048444421 2.0911465500782933
O 6.009821119801659 3.9627648343163027 4.467335899530351
H 4.83440687838545 4.428938090331627 3.4796503782938877
H 3.087424712168604 6.345751968669386 3.2672924918072366
O 3.6283937600361824 5.559613876796995 3.9218791787379836
O 4.859834787565015 3.572945186442256 4.421538420912785
O 2.767278162335159 6.365420687450175 4.447995363362679
H 0.621882839704353 3.6711552304300796 4.897804910865449
H 5.6179993064575475 5.437888786171237 5.0788298930861435
H 1.2420970028037104 5.186494546057199 2.3551229449475564
O 4.244661929820978 1.842939802983083 6.686309037021087
H 2.300908649476826 5.103609455232894 4.028636076594192
O 0.016166119931901646 4.463152370004856 4.590296768072064
O 1.0677927443295174 6.272190727508827 1.258931086052514
O 2.1592490316616098 6.043107864173343 2.6623919107412126
O 3.072984499523908 1.403493075035271 4.836029378959502
O 2.5844069162903947 5.565891653594527 0.969194192978229
H 2.1202895496097343 0.06748133919014654 1.1455417706635171
O 6.656493966592831 4.039909494816268 5.3817636057586355
H 4.38364073629028 0.056155747794555344 2.94016899151484
H 5.09964036558391 3.8186435180103486 6.554103395760819
H 1.1424585822587767 5.778348954036998 0.37408217966802715
O 4.036823159633771 1.192100861546196 2.6009914993988428
H 6.957489080830157 6.259142099950049 3.151968445611005
H 0.279297540096099 5.132477153404718 2.8310572511129815
H 3.1005204868164746 3.492958457763099 6.666953380565927
H 1.4227327328618933 4.766052110435387 1.1264928741276838
H 1.7622118602374386 6.374115892030783 5.6356950128699115
O 3.769718620353741 6.171102536014291 5.285040845769078
O 2.691151013846316 4.048789364340827 3.4924802276491693
H 6.326178344930258 4.859372984029867 1.9931138071528243
O 4.477336191940772 1.5111067446070754 5.133065221539792
H 6.41431094905299 1.4815956008342321 1.213029894793245
O 2.3059769102116148 4.706346926769632 0.49426756252153836
H 4.135415562685726 2.127799410096828 5.769902147735308
O 1.397943775643709 3.813926397565701 1.586062051163357
H 5.874988254559839 1.7483467681103342 3.665640330822584
H 6.144002200779026 3.115118918654202 2.9516160917521974
H 0.49713718198325085 5.789114739667826 5.613803039655755
H 1.3403211992452073 3.919111668936253 6.238290955073427
O 5.527987433475738 4.03395756224995 5.492309163938724
H 2.679949722936562 6.232971400379059 1.6951716234973442
H 2.231049000543002 2.6971943168833326 6.410118326411133
H 1.8128099578890349 3.87410793854301 0.18239514671492074
H 0.13377223057614052 1.6585312688075353 0.42944610638409175
H 5.836238136290412 1.6623886613268057 4.704898562247281
O 5.013172781365129 1.8467192132397074 0.5187989932570543
O 6.779241508791032 3.0429783297345265 5.639425895417856
O 2.3858270470951184 6.4650933717009895 6.946767206759472
H 6.453712242006578 5.784611368583245 2.355840152770023
